<?xml version='1.0' encoding='utf-8'?>
<VTKFile type="UnstructuredGrid" version="0.1" byte_order="LittleEndian"><UnstructuredGrid><Piece NumberOfPoints="21" NumberOfCells="4"><PointData><DataArray type="Float64" Name="Displacement" NumberOfComponents="3" format="ascii">11453246122.677073 2.3190970399654705e-18 0.0 
11453246122.67706 0.005006209108879284 0.0 
11453246122.677057 0.009999999999999985 0.0 
11453246122.672058 -4.0252695719346505e-18 0.0 
11453246122.672064 0.005004533387455955 0.0 
11453246122.672071 0.010000000000000037 0.0 
11453246122.667063 0.0 0.0 
11453246122.667053 0.005000309090633558 0.0 
11453246122.667055 0.010000000000000005 0.0 
11453246122.677065 0.0025070406887288347 0.0 
11453246122.674566 0.0050066949231313985 0.0 
11453246122.672064 0.002502524991231263 0.0 
11453246122.674564 -2.11867223733112e-18 0.0 
11453246122.677055 0.007502319898955964 0.0 
11453246122.674566 0.010000000000000014 0.0 
11453246122.67207 0.007503128754572914 0.0 
11453246122.669558 0.00500125919162312 0.0 
11453246122.667055 0.002497378348430656 0.0 
11453246122.669558 -2.603385592288628e-17 0.0 
11453246122.669565 0.010000000000000083 0.0 
11453246122.667055 0.007499917702170336 0.0 
</DataArray><DataArray type="Float64" Name="S11" NumberOfComponents="1" format="ascii">0.0
0.0
0.0
0.0
0.0
0.0
0.0
0.0
0.0
0.0
0.0
0.0
0.0
0.0
0.0
0.0
0.0
0.0
0.0
0.0
0.0
</DataArray><DataArray type="Float64" Name="S22" NumberOfComponents="1" format="ascii">0.0
0.0
0.0
0.0
0.0
0.0
0.0
0.0
0.0
0.0
0.0
0.0
0.0
0.0
0.0
0.0
0.0
0.0
0.0
0.0
0.0
</DataArray><DataArray type="Float64" Name="S12" NumberOfComponents="1" format="ascii">0.0
0.0
0.0
0.0
0.0
0.0
0.0
0.0
0.0
0.0
0.0
0.0
0.0
0.0
0.0
0.0
0.0
0.0
0.0
0.0
0.0
</DataArray><DataArray type="Float64" Name="E11" NumberOfComponents="1" format="ascii">2.5431315104166665e-06
3.3908420138888887e-06
4.238552517361111e-06
1.377529568142361e-06
4.344516330295139e-06
7.311503092447917e-06
2.1192762586805554e-07
5.298190646701389e-06
1.0384453667534723e-05
2.5431315104166665e-06
3.3908420138888887e-06
1.377529568142361e-06
2.5431315104166665e-06
4.238552517361111e-06
4.238552517361111e-06
7.311503092447917e-06
5.298190646701389e-06
2.1192762586805554e-07
2.1192762586805554e-07
1.0384453667534723e-05
1.0384453667534723e-05
</DataArray><DataArray type="Float64" Name="E22" NumberOfComponents="1" format="ascii">-6.089125566420415e-06
-2.89439369769658e-06
3.0033817102725475e-07
-6.977407828053302e-06
-4.799364774286025e-06
-2.6213217205187473e-06
-7.865690089686189e-06
-6.704335850875469e-06
-5.54298161206475e-06
-6.089125566420415e-06
-2.89439369769658e-06
-6.977407828053302e-06
-6.089125566420415e-06
3.0033817102725475e-07
3.0033817102725475e-07
-2.6213217205187473e-06
-6.704335850875469e-06
-7.865690089686189e-06
-7.865690089686189e-06
-5.54298161206475e-06
-5.54298161206475e-06
</DataArray><DataArray type="Float64" Name="E12" NumberOfComponents="1" format="ascii">6.80383380913811e-06
1.0367499457479075e-05
1.393116510582004e-05
-1.876161262320241e-06
-4.785325792056587e-06
-7.694490321792934e-06
-1.0556156333778592e-05
-1.993815104159225e-05
-2.932014574940591e-05
6.80383380913811e-06
1.0367499457479075e-05
-1.876161262320241e-06
6.80383380913811e-06
1.393116510582004e-05
1.393116510582004e-05
-7.694490321792934e-06
-1.993815104159225e-05
-1.0556156333778592e-05
-1.0556156333778592e-05
-2.932014574940591e-05
-2.932014574940591e-05
</DataArray></PointData><Points><DataArray type="Float64" NumberOfComponents="3" format="ascii">0.000000 0.000000 0.0
0.500000 0.000000 0.0
1.000000 0.000000 0.0
0.000000 0.500000 0.0
0.500000 0.500000 0.0
1.000000 0.500000 0.0
0.000000 1.000000 0.0
0.500000 1.000000 0.0
1.000000 1.000000 0.0
0.250000 0.000000 0.0
0.500000 0.250000 0.0
0.250000 0.500000 0.0
0.000000 0.250000 0.0
0.750000 0.000000 0.0
1.000000 0.250000 0.0
0.750000 0.500000 0.0
0.500000 0.750000 0.0
0.250000 1.000000 0.0
0.000000 0.750000 0.0
1.000000 0.750000 0.0
0.750000 1.000000 0.0
</DataArray></Points><Cells><DataArray type="Int32" Name="connectivity" format="ascii">0 1 4 3 9 10 11 12
1 2 5 4 13 14 15 10
3 4 7 6 11 16 17 18
4 5 8 7 15 19 20 16
</DataArray><DataArray type="Int32" Name="offsets" format="ascii">8
16
24
32
</DataArray><DataArray type="UInt8" Name="types" format="ascii">9
9
9
9
</DataArray></Cells></Piece></UnstructuredGrid></VTKFile>