<?xml version='1.0' encoding='utf-8'?>
<VTKFile type="UnstructuredGrid" version="0.1" byte_order="LittleEndian"><UnstructuredGrid><Piece NumberOfPoints="8" NumberOfCells="1"><PointData><DataArray type="Float64" Name="Displacement" NumberOfComponents="3" format="ascii">0.27824993870319376 -0.06956248467579845 -0.06956248467579842 
0.2782499387031937 -1.2751810592551154e-146 -0.06956248467579842 
0.2782499387031938 -0.06956248467579845 -2.2798550159717797e-145 
0.2782499387031938 -5.308460823437744e-147 -2.4943000112738124e-145 
2.2179440499999998e-128 -0.06956248467579841 -0.06956248467579847 
2.21794405e-128 9.498373983508823e-146 -0.06956248467579844 
2.21794405e-128 -0.06956248467579842 3.9339233393824845e-145 
2.21794405e-128 1.0083080204115192e-145 3.569735652908523e-145 
</DataArray><DataArray type="Float64" Name="S11" NumberOfComponents="1" format="ascii">1.0154022478187537
1.0154022478187537
1.0154022478187537
1.0154022478187537
1.0154022478187537
1.0154022478187537
1.0154022478187537
1.0154022478187537
</DataArray><DataArray type="Float64" Name="S22" NumberOfComponents="1" format="ascii">1.686391158041147e-17
1.686391158041147e-17
1.686391158041147e-17
1.686391158041147e-17
1.686391158041147e-17
1.686391158041147e-17
1.686391158041147e-17
1.686391158041147e-17
</DataArray><DataArray type="Float64" Name="S33" NumberOfComponents="1" format="ascii">1.5129582455700934e-17
1.5129582455700934e-17
1.5129582455700934e-17
1.5129582455700934e-17
1.5129582455700934e-17
1.5129582455700934e-17
1.5129582455700934e-17
1.5129582455700934e-17
</DataArray><DataArray type="Float64" Name="S12" NumberOfComponents="1" format="ascii">2.0258688472114453e-17
2.0258688472114453e-17
2.0258688472114453e-17
2.0258688472114453e-17
2.0258688472114453e-17
2.0258688472114453e-17
2.0258688472114453e-17
2.0258688472114453e-17
</DataArray><DataArray type="Float64" Name="S13" NumberOfComponents="1" format="ascii">-2.801939265521629e-17
-2.801939265521629e-17
-2.801939265521629e-17
-2.801939265521629e-17
-2.801939265521629e-17
-2.801939265521629e-17
-2.801939265521629e-17
-2.801939265521629e-17
</DataArray><DataArray type="Float64" Name="S23" NumberOfComponents="1" format="ascii">-1.539117686899395e-18
-1.539117686899395e-18
-1.539117686899395e-18
-1.539117686899395e-18
-1.539117686899395e-18
-1.539117686899395e-18
-1.539117686899395e-18
-1.539117686899395e-18
</DataArray><DataArray type="Float64" Name="E11" NumberOfComponents="1" format="ascii">0.27824993870319376
0.27824993870319376
0.27824993870319376
0.27824993870319376
0.27824993870319376
0.27824993870319376
0.27824993870319376
0.27824993870319376
</DataArray><DataArray type="Float64" Name="E22" NumberOfComponents="1" format="ascii">-0.06956248467579842
-0.06956248467579842
-0.06956248467579842
-0.06956248467579842
-0.06956248467579842
-0.06956248467579842
-0.06956248467579842
-0.06956248467579842
</DataArray><DataArray type="Float64" Name="E33" NumberOfComponents="1" format="ascii">-0.06956248467579844
-0.06956248467579844
-0.06956248467579844
-0.06956248467579844
-0.06956248467579844
-0.06956248467579844
-0.06956248467579844
-0.06956248467579844
</DataArray><DataArray type="Float64" Name="E12" NumberOfComponents="1" format="ascii">-1.3877787807814457e-17
-1.3877787807814457e-17
-1.3877787807814457e-17
-1.3877787807814457e-17
-1.3877787807814457e-17
-1.3877787807814457e-17
-1.3877787807814457e-17
-1.3877787807814457e-17
</DataArray><DataArray type="Float64" Name="E13" NumberOfComponents="1" format="ascii">-1.3010426069826053e-17
-1.3010426069826053e-17
-1.3010426069826053e-17
-1.3010426069826053e-17
-1.3010426069826053e-17
-1.3010426069826053e-17
-1.3010426069826053e-17
-1.3010426069826053e-17
</DataArray><DataArray type="Float64" Name="E23" NumberOfComponents="1" format="ascii">-2.8189256484623115e-18
-2.8189256484623115e-18
-2.8189256484623115e-18
-2.8189256484623115e-18
-2.8189256484623115e-18
-2.8189256484623115e-18
-2.8189256484623115e-18
-2.8189256484623115e-18
</DataArray></PointData><Points><DataArray type="Float64" NumberOfComponents="3" format="ascii">1.000000 1.000000 1.000000
1.000000 0.000000 1.000000
1.000000 1.000000 0.000000
1.000000 0.000000 0.000000
0.000000 1.000000 1.000000
0.000000 0.000000 1.000000
0.000000 1.000000 0.000000
0.000000 0.000000 0.000000
</DataArray></Points><Cells><DataArray type="Int32" Name="connectivity" format="ascii">4 5 7 6 0 1 3 2
</DataArray><DataArray type="Int32" Name="offsets" format="ascii">8
</DataArray><DataArray type="UInt8" Name="types" format="ascii">12
</DataArray></Cells></Piece></UnstructuredGrid></VTKFile>