<?xml version='1.0' encoding='utf-8'?>
<VTKFile type="UnstructuredGrid" version="0.1" byte_order="LittleEndian"><UnstructuredGrid><Piece NumberOfPoints="2189" NumberOfCells="1640"><PointData><DataArray type="Float64" Name="Displacement" NumberOfComponents="3" format="ascii">-0.8761104591672819 -0.22436696848205528 16.148132722375983 
-7.451657903185594e-129 1.623501117934635e-129 5.032999581577374e-128 
-3.3751796209043536e-129 1.5554690874495925e-128 1.9280214442044033e-128 
-1.0326400843465962 0.30244985604103275 16.1117886644055 
-2.6900099799431454e-128 1.4278860462427735e-129 4.4093785026441913e-128 
-9.618568140402783e-129 1.0659837408574477e-128 1.6364131666449737e-128 
-1.51953562302365 0.30113597942386955 16.089331628855113 
-1.5302820572018154 -0.26268242480830833 16.129306512742957 
0.0031275945689065157 -0.016420945415490235 16.156234685455175 
-6.2458112471191905e-130 1.752797690686997e-129 6.944734269097504e-128 
-1.8281340165265702e-128 2.0986496147533532e-129 2.938365174598246e-128 
-0.6560510061578753 0.7384735365088757 16.14461685090669 
5.600106130877237e-129 -5.708262224324718e-128 1.0211599594720378e-127 
-2.4120472969689874e-128 -3.6877216169379704e-128 7.183824329538577e-128 
-0.3142492077440942 -2.310800639566872 16.323874846585422 
-1.6289211814363036 -2.3945428693820285 16.32791881079175 
2.0403764517726188e-128 -4.4664909517256507e-128 8.823552565088034e-128 
1.049466494794984 -1.944203523001315 16.294116648462033 
3.4332779176754275e-128 -9.108002187299765e-129 5.573517679519507e-128 
3.0936151880819946e-128 2.2042316286306342e-128 7.407096747214832e-128 
1.2902209653727477 0.5892249801759594 16.12511292589533 
2.49117594664052 -1.210714545955049 16.252844505245037 
1.9863509096939295e-128 1.9073603354153905e-128 2.4999584958726925e-128 
-0.5951214235699744 3.6118546540924497 16.410605600188326 
-0.844341750682896 3.629127927568181 16.42195156350889 
-2.367084344477235e-128 3.5635247061735186e-129 2.5338069633045644e-128 
6.464719615421771e-130 1.3144388976047123e-128 1.2624760429478958e-128 
-0.7274790021857868 3.8237477709132817 16.43762716956181 
-0.89050235242305 -0.19493730724303393 14.47994047289663 
-0.9036475707187995 -0.1678807657150534 12.810514831108764 
-0.9191064828090891 -0.14011743357250495 11.138199404596318 
-0.9399590416093575 -0.10751260923713503 9.463503822581318 
-0.9664837074432581 -0.0648639199388857 7.788905538503476 
-0.9915282386360816 -0.007069108918302312 6.120243110467624 
-0.9883120436421136 0.06607537803174365 4.463987049455186 
-0.8849669717135564 0.1335832297307671 2.8270148482959403 
-0.563144355937594 0.1305236329711407 1.2749478957706624 
-4.940816752444636e-129 1.8173891032738678e-129 3.114304416888166e-128 
-4.711981877982343e-129 2.1711492189355455e-129 2.8857424587517915e-128 
-4.33102491216195e-129 1.9413249598905205e-129 2.7286566806724297e-128 
-0.6713212034156606 0.6307210156064695 1.4638140076491197 
-0.9987898685872529 0.6280527157904221 2.9030836616643465 
-1.1052138692716311 0.5762955417282614 4.470928974171178 
-1.116569344753557 0.5141549697901772 6.091989343698803 
-1.100707623951651 0.4626046276929122 7.749236218288164 
-1.0815559797865906 0.4216359307414651 9.42267974114665 
-1.0665462507039163 0.38843489734056935 11.099604061419933 
-1.0559213449485712 0.35910451726332 12.774203777130246 
-1.047370168645261 0.3306533361639599 14.44482856767984 
-0.9892140832640774 0.1731892499125912 16.12107717890757 
-0.9497511869958692 0.04230191132413952 16.12986400000892 
-0.9123934121802237 -0.09043813517635405 16.13878863500059 
-1.1745414843506654 0.20634572291760125 1.6740757985130768 
-1.506521397093646 0.19834508793702627 3.103993260408933 
-1.6251912611950026 0.10140955925806235 4.606154770390241 
-1.6403277893130763 0.003428106631833715 6.179876092304124 
-1.623781577827216 -0.07047891534404684 7.805935519557947 
-1.6002911572773084 -0.1233546544569574 9.461423762787375 
-1.5794994387176875 -0.16283074412114476 11.128670166241703 
-1.5625324208939873 -0.19587588544934517 12.797943579261542 
-1.5472008238943153 -0.22763440800112356 14.464740060985866 
-1.8614915525732364e-128 1.6192649502319374e-129 2.6297148367327264e-128 
-1.832261488044494e-128 1.7429367523259743e-129 2.729424366897722e-128 
-1.8409964188031968e-128 1.4774873835605432e-129 2.8675825582093904e-128 
-1.5355547128835356 0.33558194318968815 14.425681671774743 
-1.5471682954738146 0.3694884587383393 12.758195267163535 
-1.5596582374371974 0.4042985030544609 11.085508602954555 
-1.5753996350810637 0.4435057132843954 9.412699441959742 
-1.5924093657980922 0.4922218100275485 7.751584612044638 
-1.5996645423784015 0.5541840016885116 6.12491580572322 
-1.5713286821553312 0.6320500285627995 4.567761245029034 
-1.4301243529954695 0.6998541374326921 3.121851398358448 
-1.0788882103212407 0.7449258511628922 1.8418478404402512 
-1.525973493502004 -0.12138419275223464 16.11854587710038 
-1.5228809699449366 0.019520221968587836 16.108498622449186 
-1.5209337487441246 0.16026794965527813 16.098905328446058 
-1.19477553275627 0.29927953456003203 16.10256341625822 
-1.3569282081043608 0.29955924882290164 16.09539065890454 
-1.3114105786591732 -0.26322192811550044 16.136555715433097 
-1.093054219685928 -0.2501356058842343 16.142801493761038 
-1.8450687431345502e-129 1.924572748581653e-128 2.2691843380741922e-128 
-2.2260372353575907e-129 1.7473344764776332e-128 2.0703696799896087e-128 
-9.007413277711291e-129 2.0610259660701288e-129 5.082305874233309e-128 
-8.57078931408115e-129 2.5628462024894857e-129 5.537579328666465e-128 
-0.0006402453043620437 0.0027228901485351568 14.483928837150607 
-0.002632012069392196 0.020378576293007426 12.810268811669278 
-0.0045866689592572426 0.03881145010229591 11.131212457296384 
-0.008424307971335039 0.05937468567390979 9.443897020925004 
-0.015966060653141285 0.0831102753901237 7.747080855007166 
-0.028392061381137482 0.10930771307185244 6.044190479607371 
-0.04403681361014848 0.13158236617592334 4.351533191899668 
-0.054060376844993416 0.1329385673972855 2.7149569030962852 
-0.041690344342050725 0.089692559214052 1.2260489718042802 
-1.9820350406752025e-129 2.6914939948283384e-129 5.929000183744446e-128 
-3.294429859398217e-129 3.4878260848428596e-129 5.388573109992111e-128 
-3.563132564268415e-129 3.717200064244802e-129 4.813170137704764e-128 
-0.6811445981248471 0.3468852137969645 1.4264568585634951 
-0.7256868716042889 0.5720114474864638 2.8116128769061217 
-0.719658996958981 0.6920219468833007 4.384139791005881 
-0.6950403786136395 0.7497038841278841 6.039966072038776 
-0.6772672181396012 0.7693930254584991 7.727100156658851 
-0.6664176255201943 0.7695816047318458 9.420152394009257 
-0.6612713006293884 0.7604160548913426 11.108785101197064 
-0.6594656262119595 0.7482586848791025 12.790391103090933 
-0.6587557502978492 0.7376481551684716 14.466681990853079 
-0.4924650497554235 0.5498912457505823 16.14096263916592 
-0.3261470583623282 0.36187808875520805 16.142849648411538 
-0.1612343174125393 0.1725425892786741 16.148256901420858 
-0.6858938850583826 0.5748672588600354 16.138324123764765 
-0.767879121757916 0.43426364255468297 16.13036059418987 
-0.8896037076891388 0.33895143229551844 16.121249241253373 
-0.6523763895346524 -0.18567281570407923 16.152517083923694 
-0.43152928698090065 -0.13733353784663357 16.155354489210612 
-0.21310006636980605 -0.08085869261323073 16.15654400227206 
-6.876645315346492e-129 1.315679559991964e-128 1.972638866475218e-128 
-1.095841682284111e-128 1.0278522723508204e-128 2.174560522837698e-128 
-1.365717332264562e-128 6.183623471107706e-129 2.292109293772334e-128 
-2.4606777487732165e-129 1.1116650162773523e-129 5.63970363619034e-128 
-4.1136098280045884e-129 1.037528441697513e-129 5.321372667900744e-128 
-5.786598082713574e-129 1.2366990895751074e-129 5.132877855865486e-128 
-9.689713072298193e-129 5.700948823626672e-131 7.196573414763919e-128 
-9.298538622643232e-129 -2.6041014851932018e-129 7.855586134934124e-128 
-8.72412525270579e-129 -5.6430100923068543e-129 8.533999838221095e-128 
-7.971717938509439e-129 -9.245886187753666e-129 9.238865407333609e-128 
-7.054927854623231e-129 -1.362008091608123e-128 9.999322830914386e-128 
-6.039656763042147e-129 -1.8878456469424036e-128 1.090733392111523e-127 
-5.898277758579804e-129 -2.058811010234053e-128 1.2635220816498263e-127 
-1.896656610467913e-130 -6.432872999184738e-128 1.1334900772625298e-127 
-6.259432606742153e-129 -6.719260777407957e-128 1.1691508852351824e-127 
-4.5208415816680193e-128 -1.0756533959066909e-128 9.997727466862284e-128 
-4.168236224289537e-128 -9.936555051973584e-129 8.900790245134753e-128 
-4.005213450569794e-128 -7.163520374770794e-129 8.270700451595904e-128 
-3.88479764825883e-128 -4.793456040981652e-129 7.730848360342343e-128 
-3.779828684541687e-128 -2.7695554806514894e-129 7.219521001996258e-128 
-3.6809695411274753e-128 -9.993502964625944e-130 6.711649598869241e-128 
-3.586034008775281e-128 5.972802867851212e-130 6.19545768590011e-128 
-0.38793761662915827 -2.053769366017014 16.303319621911957 
-0.45941938935433324 -1.7961466853031265 16.281883898815927 
-0.5296844289962666 -1.5375547015708138 16.259334585108554 
-0.5992027695622866 -1.2775867596877255 16.2359988547005 
-0.6682674387072303 -1.0160031346626326 16.21249277999407 
-0.7371480131674065 -0.75285026232909 16.189553656192068 
-0.8062089743322587 -0.4885939625473014 16.167904267019342 
-1.1891419505886325 -2.3967995148544237 16.33104570974568 
-0.7503198029656848 -2.3686904447492365 16.329743405256774 
-1.5411953969094372 -0.529420504095891 16.151495656619414 
-1.5541202740202118 -0.7971228889942544 16.17602735802858 
-1.5679752256658719 -1.0649759184591616 16.202186420722775 
-1.5819109022457092 -1.3323520807415923 16.229053436090695 
-1.5952828038745788 -1.5989304623452927 16.255669087868146 
-1.6076170748359164 -1.864669027881117 16.28119925862788 
-1.6187103582686826 -2.1297533925460788 16.30518008031899 
-1.634398905671824 -2.353005663641508 14.66574978760244 
-1.6417889525587717 -2.3151434701401503 13.009089183863143 
-1.651033918149682 -2.2769654235208665 11.365502190352695 
-1.6604019774351384 -2.231514526659232 9.742465353798277 
-1.6644869220093894 -2.169705665930141 8.149136808910391 
-1.6497952050552316 -2.0767609702692233 6.5974082894650135 
-1.593340691306066 -1.9312567470610946 5.096713880923099 
-1.4283640193488771 -1.669215749107918 3.651515460553533 
-1.1271061753236646 -1.269329103321407 2.165459745850531 
-0.06711207996142055 -1.29803355010936 1.7532684173917654 
-0.22919923732935282 -1.7270377458860295 3.244297483480293 
-0.32805520988346026 -1.9473103074737552 4.803358743654954 
-0.3669975810225552 -2.0571578329802738 6.415276392292397 
-0.3697296240639785 -2.1231476890626713 8.048200711049068 
-0.35818901806694015 -2.1683679719826627 9.692307668659963 
-0.34328475252090906 -2.204439931896097 11.34329969240691 
-0.3296886440202956 -2.237575480866092 12.999909667522681 
-0.31911500651385943 -2.2721910769301097 14.660930522887128 
6.7485961870665315e-130 2.1480941847172573e-130 7.866046809505706e-128 
2.0711386918451767e-129 -1.8253208132630028e-129 8.182206734032455e-128 
3.5308230846299114e-129 -4.2015747148368305e-129 8.511325594057127e-128 
5.107869418283382e-129 -7.022350202077468e-129 8.862044476833573e-128 
6.866543872569273e-129 -1.0385672647028958e-128 9.261294046146195e-128 
8.846797797662835e-129 -1.4276240179156434e-128 9.793116499887069e-128 
9.585594437784728e-129 -1.4896175936241585e-128 1.104902613163667e-127 
1.746083095801096e-128 -4.790497956093039e-128 9.150631322883817e-128 
1.3526825752041964e-128 -4.90814662653176e-128 9.133856673760932e-128 
9.516663265188297e-129 -5.002846794689118e-128 9.120121335331605e-128 
0.9188277177883586 -1.7089547953235091 16.277698567976785 
0.7886124009788831 -1.4732300261691391 16.260277657611375 
0.6584630629604376 -1.2362430419255181 16.241719813806753 
0.5281418726932898 -0.9973416569566007 16.222509902863592 
0.3975177977480896 -0.7560680246561504 16.20342907559001 
0.26652611612411137 -0.512165577693599 16.185389631445716 
0.1351052908504441 -0.265569682220007 16.169347303103336 
0.03265279169710323 -2.2440429379131084 16.317052419650846 
0.37616776778461963 -2.1602357604555045 16.30941249251475 
0.7154221969767994 -2.060123026220218 16.301679327205505 
0.6234398973654864 -1.1318923392805076 1.7507179172411178 
0.874634335616425 -1.469281691140449 3.2237453787927617 
0.9958442956716068 -1.6369528719383049 4.766462131458103 
1.0386612774361113 -1.722094185585786 6.371601097241161 
1.0487520588699903 -1.7778509657757873 8.005952201736347 
1.0477788505746566 -1.8182935458004104 9.654088436919928 
1.045560885091628 -1.8510152521556416 11.309036689374562 
1.0450760577011327 -1.880661055046124 12.968429747024507 
1.046690477318979 -1.911117329254191 14.630778312768381 
3.849376243160996e-128 1.7260386499547268e-128 8.028052484242428e-128 
3.62320512400557e-128 1.549567874592084e-128 7.46465530504921e-128 
3.4511754589974476e-128 1.6336214410304362e-128 7.273540107862464e-128 
3.324010235308538e-128 1.736337441697286e-128 7.160640635982965e-128 
3.2190728541838975e-128 1.8368494104693295e-128 7.074877113878347e-128 
3.125665844081622e-128 1.9296552520137036e-128 6.996486418327265e-128 
3.0362783001604645e-128 2.015554678646632e-128 6.915095485870146e-128 
0.9395997131304026 0.6255232505976689 1.609584143820097 
1.2008436178335786 0.762147491739158 3.0191451273287195 
1.3073974394217862 0.7821863834768806 4.528044191611568 
1.3365761112381886 0.7527735799491655 6.126227559932884 
1.3390701560119842 0.7156310107605492 7.771581174222003 
1.3310720627825041 0.6820186019949007 9.438013666062842 
1.3200923787478036 0.6543966064837711 11.110834195914421 
1.3090120479389005 0.6314181368560515 12.783622275357308 
1.299083263498213 0.6107149793177233 14.454511338702826 
1.442867712769785 0.35641687846706177 16.134761006500902 
1.5952980379007733 0.12639870655872573 16.148587083520884 
1.7471380645359937 -0.10091226449918866 16.165356027924 
1.8980868592448084 -0.32574569434331985 16.18382246944634 
2.047921605633366 -0.5485170599661108 16.20271498517105 
2.196556046394592 -0.769817325989744 16.220882154136774 
2.3441305917402113 -0.9903429329893896 16.23755949830278 
2.487705230211515 -1.1796448432819961 14.590663264238483 
2.4867524331945816 -1.152733236121193 12.93340679731012 
2.4868761322446176 -1.1263163451087732 11.288143710021798 
2.4842564590398197 -1.0929143629228313 9.663028354377667 
2.470911200846019 -1.0434212890412597 8.06896320783737 
2.428360219052186 -0.9665660245689207 6.5203518142597545 
2.3266672294982422 -0.8490734872241793 5.028809958705782 
2.072403912825069 -0.6694127887658502 3.602450869436986 
1.6282569194456784 -0.42249050149734935 2.160806713863261 
2.2172785891788576 -1.3840944846587426 16.262674838037828 
1.9354529738146968 -1.5441007368417297 16.271722825038413 
1.6464541207185532 -1.6906776962432848 16.279820932024162 
1.3509147211245693 -1.824001800570752 16.28715701751461 
2.3017225078100684e-128 -4.1319309952768626e-128 8.49232375934893e-128 
2.6468728720432264e-128 -3.9686753064738926e-128 8.515843159513967e-128 
3.025965079561764e-128 -3.794298073850797e-128 8.577515937567988e-128 
3.411226026101499e-128 -3.796596521596967e-128 8.896556345544924e-128 
1.0470583600468537 0.44075718218688903 16.13546024783303 
0.796119297894293 0.3057042069107887 16.14367204526149 
0.5377977811169488 0.1844732055485424 16.149832155397156 
0.2730766804645887 0.07715660781055036 16.15401420308868 
2.3738160927723575e-129 3.111875926048925e-129 8.565124175772463e-128 
6.372487295866409e-129 5.004834480545208e-129 9.33996787118713e-128 
1.1011012303346468e-128 7.600236504361301e-129 9.918127582834922e-128 
1.315590073801938e-128 8.561652129144505e-129 1.053394768406437e-127 
3.247490510471763e-128 2.514035121635871e-128 8.733600178814763e-128 
3.3739930985091784e-128 2.948330544473748e-128 1.0894144771468868e-127 
3.382394403123042e-128 3.456767782270988e-128 1.3243370834449335e-127 
3.0792077122881285e-128 3.441193658732783e-128 1.21181491624935e-127 
2.79106226121717e-128 3.3078126469938425e-128 1.0502415408482445e-127 
2.576140253327355e-128 3.213200175886527e-128 9.356463444295523e-128 
2.4094892215248645e-128 3.1122320816029795e-128 8.316617209030244e-128 
2.291526513993827e-128 3.0009576546958925e-128 7.299824000282654e-128 
2.2320768119478198e-128 2.8827323867084884e-128 6.289541785152404e-128 
2.2539420366065465e-128 2.7656093980585006e-128 5.286330142866375e-128 
2.421312951381192e-128 2.662139268129657e-128 4.308172547870586e-128 
-0.35505851572422836 1.5748575274968053 2.007801410778261 
-0.6529961046054815 2.382803812208119 3.784204253722263 
-0.6799275467634824 2.864764302602516 5.338360503162553 
-0.6538386705038761 3.160444484319039 6.842157535300872 
-0.6141620453154363 3.3370670636263178 8.358891833407892 
-0.5831874661985081 3.436788517132117 9.905291742304518 
-0.5670395460954779 3.492300536523752 11.488783746819696 
-0.5649782895911711 3.5283566192299065 13.106696805402514 
-0.5752135241537218 3.5644206660182296 14.751410740495208 
-2.639422499250502e-129 6.310370929867257e-129 3.5059300856501365e-128 
-0.44460051306802073 3.3704204356003005 16.37735414771831 
-0.29327866379408934 3.126933153180531 16.341126281758036 
-0.1408450588002299 2.880467659441233 16.303133461383947 
0.012848795448115553 2.6307800672962505 16.265079091977828 
0.16787163864639565 2.378140635712025 16.228774924848455 
0.32425430949436984 2.1231781384262645 16.195919751913422 
0.48201700442406836 1.8667375437034508 16.167985141185902 
0.6412076903121051 1.609766094876147 16.14623452554852 
0.8020523919502093 1.353384744444165 16.132154236105414 
0.9643234202908493 1.09690354071629 16.12293618326529 
1.1270945334470237 0.841820057862287 16.120728629093804 
-0.7197187483335323 3.620550514297194 16.416348940751696 
-0.8233083700510613 3.581533153637346 14.761595295684291 
-0.8100974274955877 3.5443036734763065 13.113625780331422 
-0.8075280458355756 3.506116974269805 11.490674151749035 
-0.8182008940284615 3.446593940561148 9.900658137656023 
-0.8436039564572427 3.340144640102684 8.34758848490457 
-0.8789165608836997 3.153601164909566 6.8287469008811925 
-0.9075140094690377 2.843524025670215 5.332389012853527 
-0.8723915827160318 2.355473536104892 3.825396594437191 
-0.7458369367704809 1.5114798722483984 2.1117189172835285 
-0.8365703222826034 3.417237519934951 16.399102001567435 
-0.8278662632080838 3.204400038414566 16.374820476910863 
-0.8177841998728511 2.9901382980712956 16.34911912840431 
-0.806143008249007 2.774117949722285 16.322434311144324 
-0.7929445578699948 2.556137937611779 16.295412761389645 
-0.7783232900575905 2.336117383236481 16.268785604111702 
-0.7625109125013462 2.1140652182748316 16.243288187954636 
-0.7458272826582023 1.8900371286593511 16.21956459587574 
-0.728655601887564 1.6640340957779762 16.197936935367085 
-0.7105618681831828 1.4352486512926914 16.17896663970363 
-0.6919087660270056 1.2050355576990408 16.164138263676882 
-0.6741098430235233 0.9735100888973114 16.15307774255185 
-2.8376216076922734e-128 3.762745565253446e-129 3.8791701309201656e-128 
-2.727029220807083e-128 6.225290105839187e-129 4.682198163563752e-128 
-2.7159275410466174e-128 7.794255654926471e-129 5.495802512550543e-128 
-2.7480521614909844e-128 8.889234198363246e-129 6.307382299676224e-128 
-2.803028591434427e-128 9.63548511160701e-129 7.121274686656963e-128 
-2.871697674333348e-128 1.0126858255862528e-128 7.958918424708434e-128 
-2.954086954688342e-128 1.0511330537224957e-128 8.904997022473365e-128 
-3.0725763611426854e-128 1.1266035625309685e-128 1.030118556481086e-127 
-3.145112981162333e-128 1.0977456317479254e-128 1.1142217013718458e-127 
-2.9164007808528046e-128 6.425543074924925e-129 8.521161904858946e-128 
-2.589641048057193e-128 2.9522904957753805e-129 5.970375527235173e-128 
-2.335994108123266e-128 1.0843585763560144e-129 4.3795584081014174e-128 
1.4676418683784647e-128 1.193286491397932e-128 1.276928161476511e-128 
-1.6555032869709925e-128 9.317209747810335e-129 1.8020178803709552e-128 
-0.5868698720739267 1.811714294020758 2.513880304589089 
-0.8213391288257269 2.5395320648192294 4.03478301398553 
-0.8281319013678576 3.0310362138106903 5.487751701899406 
-0.7920197622708242 3.3354065452951436 6.935270039165672 
-0.7459964606907313 3.522547378216222 8.414521182453434 
-0.7129422401178152 3.6315813433502933 9.940738394391621 
-0.6968834822683724 3.6945501241227108 11.514112314828953 
-0.6959627734077773 3.736141081607937 13.129633272399188 
-0.7073580620130295 3.7757230799602306 14.776588590739646 
-0.6612554991916895 3.717777672852238 16.42429959111307 
-0.8093122985232005 3.7404704466477936 16.43208814756104 
-0.927938257321234 -0.06234889473746854 14.470581650684817 
-0.9407682649028151 -0.03543206273181383 12.800721556443754 
-0.9556786950684485 -0.007679856622312025 11.127778717892758 
-0.9759994107485961 0.024617854311019628 9.452825719984553 
-1.0022054223452508 0.06616587388923681 7.7793987682805295 
-1.027498136628314 0.12110251100406218 6.115119685760792 
-1.0261878914821412 0.18913012546393498 4.470070262696726 
-0.9266399080019132 0.24850962416627986 2.847265579242856 
-0.5994817742600139 0.21624699874531667 1.2895204741054505 
-0.9662501268500618 0.06955163657738073 14.461820401565221 
-0.9782749386100689 0.0966719932033248 12.791557857063312 
-0.9922422212737266 0.12467988074938724 11.117984560310111 
-1.011486455533214 0.15694125760171584 9.442578256462514 
-1.0365392514621683 0.1977941009508828 7.769938919337073 
-1.0608366933427529 0.25058732541487505 6.109201676688421 
-1.0597747268564293 0.314223682007016 4.4744907448954 
-0.9638283492881665 0.37089814526993764 2.8726150279807494 
-0.6355333964131075 0.32018715574408074 1.314301807819865 
-1.0058887511007681 0.20048724592740744 14.453441992694033 
-1.0164457261453088 0.22820166963616387 12.782858756602886 
-1.0289858194654204 0.25678591473750884 11.108667511112428 
-1.046457505311284 0.2894450478020364 9.432605257229804 
-1.0692160768509533 0.33011598832448924 7.759875955014025 
-1.090662716841239 0.3822659120069562 6.10212816587662 
-1.086923895755334 0.4427342120033452 4.47384152715736 
-0.991202166504506 0.5007915920598444 2.8993257856452845 
-0.6664377021313814 0.4541170108094823 1.361426685273158 
-1.5432765263277162 -0.08690353330316408 14.454237389331112 
-1.5581583106343555 -0.05458214359030173 12.787134637844916 
-1.574371304388149 -0.020966506111031454 11.11691967023666 
-1.5942969641990907 0.018791569440796758 9.448541473838251 
-1.6167215862817819 0.07129621057325 7.792609429493822 
-1.6317600805155417 0.14330084871894858 6.168336519827529 
-1.6140377080713955 0.23796482058221896 4.60295813198827 
-1.4923683007082242 0.3315955438765281 3.1139882732854645 
-1.1592842660376803 0.3144913721285997 1.6829480790029927 
-1.5401486376729197 0.053757433603525064 14.444408808492309 
-1.5542030428075413 0.08667498331844303 12.777071619649778 
-1.5693311725499266 0.12078547158565284 11.105975621957398 
-1.5879873888461244 0.16057817652513726 9.436337173846024 
-1.608727142914284 0.21229863994878784 7.779637589743658 
-1.621398472439636 0.28180315464699973 6.156029534998275 
-1.5997065043762388 0.3715165725425485 4.597139316166036 
-1.4728874006607788 0.46518067780606454 3.127954910519376 
-1.137393256776197 0.437979102276162 1.7007914123416752 
-1.5377120261226394 0.19454980473129369 14.435036426192827 
-1.5506210031410799 0.22800721288354026 12.76756133229304 
-1.5644438190589087 0.26249076870525423 11.095624587329167 
-1.5816415066476148 0.3020976832320287 9.424570394359504 
-1.600336676054098 0.35238421682942256 7.766125770557559 
-1.6103313056757118 0.41901183272428855 6.142565487818597 
-1.5841454432609714 0.5013449503536069 4.584174345766549 
-1.4501611414808018 0.5921760613101708 3.140658313714917 
-1.1080466933041246 0.5799668406324482 1.7403243793564651 
-1.1160427190823206 -0.11135291393909287 16.132450578648918 
-1.1403577642359268 0.02643005807822237 16.12249060488891 
-1.1665789432717482 0.1631032851199265 16.112633791597727 
-1.320857038427428 -0.1216575444747566 16.125743095536926 
-1.331650954084129 0.019234266757792575 16.11543336357042 
-1.3438563392329157 0.15952335930134587 16.105397618921398 
-5.787127341029832e-129 2.2412151243161226e-129 3.201786852832093e-128 
-5.3921901611287885e-129 2.709278687510487e-129 3.0180998773708443e-128 
-4.875423803946449e-129 2.5657064444812965e-129 2.91034302297853e-128 
-5.3176321355553936e-129 2.6820821552571596e-129 3.5379567591715087e-128 
-4.7761983667830525e-129 3.1919229574440674e-129 3.346248592681596e-128 
-4.1534517496009105e-129 2.985590754591405e-129 3.23734127650769e-128 
-1.1085994659835365 -0.21756942675031443 14.476033544550122 
-1.1229146984437612 -0.18808227840823016 12.807985190105015 
-1.1395330728008484 -0.15782715544173415 11.137846022271791 
-1.16147252570252 -0.12189588802979631 9.467590616525623 
-1.1888135067816061 -0.0740999721601993 7.80199206084505 
-1.2133371173950596 -0.008077121449986992 6.14917098065626 
-1.2090105668171245 0.07775658566347163 4.519371490054881 
-1.0988802317638033 0.1603198243069472 2.9000955590657953 
-0.7172466140717726 0.1599330876003138 1.3161803786775907 
-1.3276779725270527 -0.22856397708473988 14.47099178724346 
-1.3426526866263844 -0.19749405761711203 12.803854854133256 
-1.3596593171121283 -0.16550705384068748 11.134941105941804 
-1.381484183914363 -0.127312500766282 9.467597704836408 
-1.4076106043000203 -0.07614017757826236 7.809104333180682 
-1.4298973239910562 -0.004721575536503944 6.171987057849039 
-1.4200080700889388 0.08912266053103243 4.5699224819796225 
-1.3171141112552522 0.1829649885940708 3.007742176818901 
-0.9106692556722784 0.18410710525949758 1.4050567516679573 
-1.2101339641938236 0.3310529256451217 14.437340752966579 
-1.220065241620942 0.3617383820030532 12.768224287748096 
-1.231616900574728 0.3932996647455442 11.095191675058967 
-1.2474570808402763 0.4291003674405693 9.421134204268776 
-1.266884721637319 0.47379983239469314 7.7539098236977715 
-1.2810304754781505 0.531053503101445 6.108396054981945 
-1.2644226553325109 0.6019895929376471 4.508702776129563 
-1.1488196129391723 0.6692339040059905 2.9684454806217815 
-0.7624094723535818 0.6877311209698111 1.5157900158919007 
-1.37269379073879 0.33306631888634713 14.430956111931593 
-1.383646539515111 0.365445941518787 12.762775692167997 
-1.3957483188010475 0.39867177868463116 11.090405151038727 
-1.4118046795397383 0.4363117718594786 9.417762483019477 
-1.4303551420166316 0.48307748751256385 7.754640732134332 
-1.442398882830772 0.5435525435498895 6.120178810867206 
-1.41879862558995 0.6170240151490444 4.540139117860471 
-1.301122690171845 0.6906408892675917 3.053123065117194 
-0.8995306303504652 0.7143852756981328 1.6183639160913248 
-0.1654771673393794 0.1866090041871971 14.47491370419986 
-0.16783790799697645 0.2018093374810528 12.800474021638905 
-0.17038035851213457 0.2182041790705211 11.120914344440322 
-0.17528621403456995 0.23562972740589905 9.433960731279074 
-0.18420013149080983 0.2535185714725732 7.739480363931389 
-0.19735141699600206 0.2691935756972699 6.042537338650535 
-0.20988688122211663 0.2740971314825461 4.3592341208317595 
-0.20229742126043684 0.24786515827960043 2.7283855634160035 
-0.1370474456169594 0.15871445284259145 1.2335696856913845 
-0.33081313889803554 0.3701822806757845 14.4683779818325 
-0.33298748304418113 0.38318779036847384 12.793134348089914 
-0.33549787930766983 0.39770708164224816 11.113157228778054 
-0.34069403742179355 0.41194355152606477 9.42655506090672 
-0.3502416886729251 0.42370171573072524 7.7344987908156515 
-0.36357297310295483 0.4283266215031479 6.043534937205626 
-0.3755604040062736 0.4157602687332795 4.373237688113096 
-0.36082486548303405 0.36518222260597644 2.755379879274607 
-0.25041998301159096 0.23584676935891113 1.2511261588823013 
-0.4965031648809119 0.5526197300756184 14.46478654118613 
-0.4976320286892849 0.5644230790390878 12.788696300866938 
-0.4993335883856039 0.5777535377942999 11.108128866571619 
-0.5038778737715729 0.589576051256004 9.421132270860952 
-0.5127691883678205 0.59597872889457 7.729988683007901 
-0.5263746984282629 0.5903653687681935 6.043755822221647 
-0.5377410524735341 0.5605717409565312 4.383324413872469 
-0.5343625402751334 0.4842860415961997 2.7990277082957014 
-0.4091732225742245 0.3248917259593295 1.295435795650996 
-0.7089427725501349 -0.05155941170382983 16.14405334411812 
-0.7662395202695539 0.08154330276579812 16.136164107600464 
-0.825213960285228 0.21240342500481382 16.128737227183354 
-0.5135279205311696 0.008391243479423478 16.147313422399225 
-0.5961037935864262 0.15364690468649206 16.1402814513026 
-0.6800770310340742 0.2972277633994155 16.134406772919853 
-0.3300661999094491 0.08467522615769929 16.14856939068821 
-0.44763963930435025 0.2502314100913323 16.14228877172024 
-0.5669184468870004 0.41474552085888516 16.138186564445768 
-4.103386683641764e-129 1.5053008996490164e-129 3.2363725584135653e-128 
-4.017291919006162e-129 1.8022898183710227e-129 2.971268790059005e-128 
-3.614208783673045e-129 1.4387832699336353e-129 2.7860100159992463e-128 
-3.381416268557068e-129 1.4424996793074205e-129 3.597439637619347e-128 
-3.507774202308382e-129 1.7985690370214898e-129 3.3015485789623353e-128 
-3.034815000230846e-129 1.484604487476613e-129 3.103164109112995e-128 
-2.6525901841035948e-129 1.6593817448480405e-129 4.157773095009046e-128 
-3.069783178782818e-129 2.1104568461320234e-129 3.7406509100196804e-128 
-2.697866301846664e-129 2.0251082763537606e-129 3.4340815422130875e-128 
-0.6647200905299181 -0.1599149056209046 14.482750521703036 
-0.6758741038198628 -0.13591124466415616 12.811718299798375 
-0.6890444242222051 -0.11125712672612972 11.136825789785481 
-0.7071282497529178 -0.08279983401486031 9.457143139304709 
-0.7307073902002605 -0.04661039952645957 7.773476849562297 
-0.7536366401104889 0.0008226347252713038 6.089882322797634 